DF-ISE text

Info {
  version   = 1.0
  type      = xyplot
  datasets  = [
    "time"
    "source OuterVoltage" "source InnerVoltage" "source QuasiFermiPotential" "source DisplacementCurrent" "source eCurrent"
    "source hCurrent" "source TotalCurrent" "source Charge" "gate OuterVoltage" "gate InnerVoltage"
    "gate QuasiFermiPotential" "gate DisplacementCurrent" "gate eCurrent" "gate hCurrent" "gate TotalCurrent"
    "gate Charge" "drain OuterVoltage" "drain InnerVoltage" "drain QuasiFermiPotential" "drain DisplacementCurrent"
    "drain eCurrent" "drain hCurrent" "drain TotalCurrent" "drain Charge" ]
  functions = [
    Time
    OuterVoltage InnerVoltage QuasiFermiPotential DisplacementCurrent eCurrent
    hCurrent TotalCurrent Charge OuterVoltage InnerVoltage
    QuasiFermiPotential DisplacementCurrent eCurrent hCurrent TotalCurrent
    Charge OuterVoltage InnerVoltage QuasiFermiPotential DisplacementCurrent
    eCurrent hCurrent TotalCurrent Charge ]
}

Data {
      1.50000000000000E-02
      0.00000000000000E+00   0.00000000000000E+00   0.00000000000000E+00   0.00000000000000E+00  -4.60279618025106E-04
     -4.71022472167434E-20  -4.60279618025106E-04   4.50564732880617E-17  -3.19000000000000E-01  -3.19000000000000E-01
      0.00000000000000E+00   0.00000000000000E+00   0.00000000000000E+00   0.00000000000000E+00   0.00000000000000E+00
     -4.73254720531618E-17   7.00000000000000E-01   7.00000000000000E-01   0.00000000000000E+00   0.00000000000000E+00
      4.60279618025099E-04   4.71022472167438E-20   4.60279618025099E-04   1.83830033961965E-16
      3.00000000000000E-02
      0.00000000000000E+00   0.00000000000000E+00   0.00000000000000E+00   0.00000000000000E+00  -4.73552637037192E-04
     -4.73153486766504E-20  -4.73552637037192E-04   4.39638330573296E-17  -2.38000000000000E-01  -2.38000000000000E-01
      0.00000000000000E+00   0.00000000000000E+00   0.00000000000000E+00   0.00000000000000E+00   0.00000000000000E+00
     -4.25686912960756E-17   7.00000000000000E-01   7.00000000000000E-01   0.00000000000000E+00   0.00000000000000E+00
      4.73552637037188E-04   4.73153486766505E-20   4.73552637037188E-04   1.82581148788539E-16
      4.50000000000000E-02
      0.00000000000000E+00   0.00000000000000E+00   0.00000000000000E+00   0.00000000000000E+00  -4.87309946694166E-04
     -4.75415351866952E-20  -4.87309946694166E-04   4.29090868117075E-17  -1.57000000000000E-01  -1.57000000000000E-01
      0.00000000000000E+00   0.00000000000000E+00   0.00000000000000E+00   0.00000000000000E+00   0.00000000000000E+00
     -3.77912283831958E-17   7.00000000000000E-01   7.00000000000000E-01   0.00000000000000E+00   0.00000000000000E+00
      4.87309946694176E-04   4.75415351866958E-20   4.87309946694176E-04   1.81348709622185E-16
      6.00000000000000E-02
      0.00000000000000E+00   0.00000000000000E+00   0.00000000000000E+00   0.00000000000000E+00  -5.01526092493155E-04
     -4.77806358188949E-20  -5.01526092493155E-04   4.18869999945124E-17  -7.60000000000000E-02  -7.60000000000000E-02
      0.00000000000000E+00   0.00000000000000E+00   0.00000000000000E+00   0.00000000000000E+00   0.00000000000000E+00
     -3.29933960276434E-17   7.00000000000000E-01   7.00000000000000E-01   0.00000000000000E+00   0.00000000000000E+00
      5.01526092493145E-04   4.77806358188946E-20   5.01526092493145E-04   1.80129763106958E-16
      7.50000000000000E-02
      0.00000000000000E+00   0.00000000000000E+00   0.00000000000000E+00   0.00000000000000E+00  -5.16049867227914E-04
     -4.80297707918581E-20  -5.16049867227914E-04   4.08781355413942E-17   5.00000000000000E-03   5.00000000000000E-03
      0.00000000000000E+00   0.00000000000000E+00   0.00000000000000E+00   0.00000000000000E+00   0.00000000000000E+00
     -2.81781821151154E-17   7.00000000000000E-01   7.00000000000000E-01   0.00000000000000E+00   0.00000000000000E+00
      5.16049867228082E-04   4.80297707918748E-20   5.16049867228082E-04   1.78913693357903E-16
      9.00000000000000E-02
      0.00000000000000E+00   0.00000000000000E+00   0.00000000000000E+00   0.00000000000000E+00  -5.30502033811000E-04
     -4.82811209969117E-20  -5.30502033811000E-04   3.98590098973601E-17   8.60000000000000E-02   8.60000000000000E-02
      0.00000000000000E+00   0.00000000000000E+00   0.00000000000000E+00   0.00000000000000E+00   0.00000000000000E+00
     -2.33528214250882E-17   7.00000000000000E-01   7.00000000000000E-01   0.00000000000000E+00   0.00000000000000E+00
      5.30502033810996E-04   4.82811209969149E-20   5.30502033810996E-04   1.77680955208441E-16
      1.05000000000000E-01
      0.00000000000000E+00   0.00000000000000E+00   0.00000000000000E+00   0.00000000000000E+00  -5.44760241695497E-04
     -4.85324817360934E-20  -5.44760241695497E-04   3.88541516774340E-17   1.67000000000000E-01   1.67000000000000E-01
      0.00000000000000E+00   0.00000000000000E+00   0.00000000000000E+00   0.00000000000000E+00   0.00000000000000E+00
     -1.85172833434258E-17   7.00000000000000E-01   7.00000000000000E-01   0.00000000000000E+00   0.00000000000000E+00
      5.44760241695499E-04   4.85324817360938E-20   5.44760241695499E-04   1.76436744943015E-16
      1.20000000000000E-01
      0.00000000000000E+00   0.00000000000000E+00   0.00000000000000E+00   0.00000000000000E+00  -5.58997483525868E-04
     -4.87878507953399E-20  -5.58997483525868E-04   3.78795425587429E-17   2.48000000000000E-01   2.48000000000000E-01
      0.00000000000000E+00   0.00000000000000E+00   0.00000000000000E+00   0.00000000000000E+00   0.00000000000000E+00
     -1.36651840528934E-17   7.00000000000000E-01   7.00000000000000E-01   0.00000000000000E+00   0.00000000000000E+00
      5.58997483525888E-04   4.87878507953395E-20   5.58997483525888E-04   1.75198173937978E-16
      1.35000000000000E-01
      0.00000000000000E+00   0.00000000000000E+00   0.00000000000000E+00   0.00000000000000E+00  -5.73380566431256E-04
     -4.90508770860462E-20  -5.73380566431256E-04   3.69324018038552E-17   3.29000000000000E-01   3.29000000000000E-01
      0.00000000000000E+00   0.00000000000000E+00   0.00000000000000E+00   0.00000000000000E+00   0.00000000000000E+00
     -8.79466335557748E-18   7.00000000000000E-01   7.00000000000000E-01   0.00000000000000E+00   0.00000000000000E+00
      5.73380566431255E-04   4.90508770860467E-20   5.73380566431255E-04   1.73969558717809E-16
      1.50000000000000E-01
      0.00000000000000E+00   0.00000000000000E+00   0.00000000000000E+00   0.00000000000000E+00  -5.87952302066564E-04
     -4.93225644817034E-20  -5.87952302066564E-04   3.60082106735999E-17   4.10000000000000E-01   4.10000000000000E-01
      0.00000000000000E+00   0.00000000000000E+00   0.00000000000000E+00   0.00000000000000E+00   0.00000000000000E+00
     -3.90697685857558E-18   7.00000000000000E-01   7.00000000000000E-01   0.00000000000000E+00   0.00000000000000E+00
      5.87952302066547E-04   4.93225644817033E-20   5.87952302066547E-04   1.72747697767185E-16
      1.65000000000000E-01
      0.00000000000000E+00   0.00000000000000E+00   0.00000000000000E+00   0.00000000000000E+00  -6.02692123986663E-04
     -4.96026307090539E-20  -6.02692123986663E-04   3.51044534676424E-17   4.91000000000000E-01   4.91000000000000E-01
      0.00000000000000E+00   0.00000000000000E+00   0.00000000000000E+00   0.00000000000000E+00   0.00000000000000E+00
      9.96801744908701E-19   7.00000000000000E-01   7.00000000000000E-01   0.00000000000000E+00   0.00000000000000E+00
      6.02692123986652E-04   4.96026307090537E-20   6.02692123986652E-04   1.71530299526573E-16
      1.80000000000000E-01
      0.00000000000000E+00   0.00000000000000E+00   0.00000000000000E+00   0.00000000000000E+00  -6.17600853557748E-04
     -4.98912921793429E-20  -6.17600853557748E-04   3.42214446455036E-17   5.72000000000000E-01   5.72000000000000E-01
      0.00000000000000E+00   0.00000000000000E+00   0.00000000000000E+00   0.00000000000000E+00   0.00000000000000E+00
      5.91610472848976E-18   7.00000000000000E-01   7.00000000000000E-01   0.00000000000000E+00   0.00000000000000E+00
      6.17600853557730E-04   4.98912921793428E-20   6.17600853557730E-04   1.70317548163889E-16
      1.95000000000000E-01
      0.00000000000000E+00   0.00000000000000E+00   0.00000000000000E+00   0.00000000000000E+00  -6.32663061906041E-04
     -5.01883475403710E-20  -6.32663061906041E-04   3.33581845522337E-17   6.53000000000000E-01   6.53000000000000E-01
      0.00000000000000E+00   0.00000000000000E+00   0.00000000000000E+00   0.00000000000000E+00   0.00000000000000E+00
      1.08500703242099E-17   7.00000000000000E-01   7.00000000000000E-01   0.00000000000000E+00   0.00000000000000E+00
      6.32663061906012E-04   5.01883475403704E-20   6.32663061906012E-04   1.69107839349090E-16
      2.10000000000000E-01
      0.00000000000000E+00   0.00000000000000E+00   0.00000000000000E+00   0.00000000000000E+00  -6.47858220290286E-04
     -5.04934573742130E-20  -6.47858220290286E-04   3.25136750712637E-17   7.34000000000001E-01   7.34000000000001E-01
      0.00000000000000E+00   0.00000000000000E+00   0.00000000000000E+00   0.00000000000000E+00   0.00000000000000E+00
      1.57979432902381E-17   7.00000000000000E-01   7.00000000000000E-01   0.00000000000000E+00   0.00000000000000E+00
      6.47858220290263E-04   5.04934573742123E-20   6.47858220290263E-04   1.67900139964368E-16
      2.25000000000000E-01
      0.00000000000000E+00   0.00000000000000E+00   0.00000000000000E+00   0.00000000000000E+00  -6.63170679440603E-04
     -5.08063584595395E-20  -6.63170679440603E-04   3.16870349805803E-17   8.15000000000001E-01   8.15000000000001E-01
      0.00000000000000E+00   0.00000000000000E+00   0.00000000000000E+00   0.00000000000000E+00   0.00000000000000E+00
      2.07589809155907E-17   7.00000000000000E-01   7.00000000000000E-01   0.00000000000000E+00   0.00000000000000E+00
      6.63170679440598E-04   5.08063584595399E-20   6.63170679440598E-04   1.66693482642599E-16
      2.40000000000000E-01
      0.00000000000000E+00   0.00000000000000E+00   0.00000000000000E+00   0.00000000000000E+00  -6.78584373182134E-04
     -5.11267504783641E-20  -6.78584373182134E-04   3.08774637297325E-17   8.96000000000001E-01   8.96000000000001E-01
      0.00000000000000E+00   0.00000000000000E+00   0.00000000000000E+00   0.00000000000000E+00   0.00000000000000E+00
      2.57324948512841E-17   7.00000000000000E-01   7.00000000000000E-01   0.00000000000000E+00   0.00000000000000E+00
      6.78584373182141E-04   5.11267504783639E-20   6.78584373182141E-04   1.65487223122885E-16
      2.55000000000000E-01
      0.00000000000000E+00   0.00000000000000E+00   0.00000000000000E+00   0.00000000000000E+00  -6.94084611522030E-04
     -5.14543251046144E-20  -6.94084611522030E-04   3.00842562169624E-17   9.77000000000001E-01   9.77000000000001E-01
      0.00000000000000E+00   0.00000000000000E+00   0.00000000000000E+00   0.00000000000000E+00   0.00000000000000E+00
      3.07177885117955E-17   7.00000000000000E-01   7.00000000000000E-01   0.00000000000000E+00   0.00000000000000E+00
      6.94084611522011E-04   5.14543251046149E-20   6.94084611522011E-04   1.64280562029496E-16
      2.70000000000000E-01
      0.00000000000000E+00   0.00000000000000E+00   0.00000000000000E+00   0.00000000000000E+00  -7.09657824264957E-04
     -5.17887746502268E-20  -7.09657824264957E-04   2.93067674823568E-17   1.05800000000000E+00   1.05800000000000E+00
      0.00000000000000E+00   0.00000000000000E+00   0.00000000000000E+00   0.00000000000000E+00   0.00000000000000E+00
      3.57142520400964E-17   7.00000000000000E-01   7.00000000000000E-01   0.00000000000000E+00   0.00000000000000E+00
      7.09657824264958E-04   5.17887746502277E-20   7.09657824264958E-04   1.63073204046716E-16
      2.85000000000000E-01
      0.00000000000000E+00   0.00000000000000E+00   0.00000000000000E+00   0.00000000000000E+00  -7.25292713141718E-04
     -5.21298061971757E-20  -7.25292713141718E-04   2.85443444653329E-17   1.13900000000000E+00   1.13900000000000E+00
      0.00000000000000E+00   0.00000000000000E+00   0.00000000000000E+00   0.00000000000000E+00   0.00000000000000E+00
      4.07212237834529E-17   7.00000000000000E-01   7.00000000000000E-01   0.00000000000000E+00   0.00000000000000E+00
      7.25292713141744E-04   5.21298061971759E-20   7.25292713141744E-04   1.61864457459770E-16
      3.00000000000000E-01
      0.00000000000000E+00   0.00000000000000E+00   0.00000000000000E+00   0.00000000000000E+00  -7.40977582028639E-04
     -5.24770911405749E-20  -7.40977582028639E-04   2.77964141400753E-17   1.22000000000000E+00   1.22000000000000E+00
      0.00000000000000E+00   0.00000000000000E+00   0.00000000000000E+00   0.00000000000000E+00   0.00000000000000E+00
      4.57381195965178E-17   7.00000000000000E-01   7.00000000000000E-01   0.00000000000000E+00   0.00000000000000E+00
      7.40977582028654E-04   5.24770911405745E-20   7.40977582028654E-04   1.60653957048835E-16
      3.15000000000000E-01
      0.00000000000000E+00   0.00000000000000E+00   0.00000000000000E+00   0.00000000000000E+00  -7.56701788735337E-04
     -5.28303029123267E-20  -7.56701788735337E-04   2.70624147928991E-17   1.30100000000000E+00   1.30100000000000E+00
      0.00000000000000E+00   0.00000000000000E+00   0.00000000000000E+00   0.00000000000000E+00   0.00000000000000E+00
      5.07643738130928E-17   7.00000000000000E-01   7.00000000000000E-01   0.00000000000000E+00   0.00000000000000E+00
      7.56701788735347E-04   5.28303029123267E-20   7.56701788735347E-04   1.59441363010507E-16
      3.33333333333333E-01
      0.00000000000000E+00   0.00000000000000E+00   0.00000000000000E+00   0.00000000000000E+00  -7.75959568538141E-04
     -5.32695461110966E-20  -7.75959568538141E-04   2.61833882327020E-17   1.40000000000000E+00   1.40000000000000E+00
      0.00000000000000E+00   0.00000000000000E+00   0.00000000000000E+00   0.00000000000000E+00   0.00000000000000E+00
      5.69194789086348E-17   7.00000000000000E-01   7.00000000000000E-01   0.00000000000000E+00   0.00000000000000E+00
      7.75959568538159E-04   5.32695461110959E-20   7.75959568538159E-04   1.57955900648995E-16
      3.48333333333333E-01
      0.00000000000000E+00   0.00000000000000E+00   0.00000000000000E+00   0.00000000000000E+00  -7.91736647229804E-04
     -5.36346857386539E-20  -7.91736647229804E-04   2.54783415044913E-17   1.48100000000000E+00   1.48100000000000E+00
      0.00000000000000E+00   0.00000000000000E+00   0.00000000000000E+00   0.00000000000000E+00   0.00000000000000E+00
      6.19646020450685E-17   7.00000000000000E-01   7.00000000000000E-01   0.00000000000000E+00   0.00000000000000E+00
      7.91736647229782E-04   5.36346857386542E-20   7.91736647229782E-04   1.56737367394957E-16
      3.63333333333333E-01
      0.00000000000000E+00   0.00000000000000E+00   0.00000000000000E+00   0.00000000000000E+00  -8.07522520570257E-04
     -5.40046204094960E-20  -8.07522520570257E-04   2.47854758477884E-17   1.56200000000000E+00   1.56200000000000E+00
      0.00000000000000E+00   0.00000000000000E+00   0.00000000000000E+00   0.00000000000000E+00   0.00000000000000E+00
      6.70174189417810E-17   7.00000000000000E-01   7.00000000000000E-01   0.00000000000000E+00   0.00000000000000E+00
      8.07522520570241E-04   5.40046204094955E-20   8.07522520570241E-04   1.55515703382890E-16
      3.78333333333333E-01
      0.00000000000000E+00   0.00000000000000E+00   0.00000000000000E+00   0.00000000000000E+00  -8.23308322374573E-04
     -5.43789875806985E-20  -8.23308322374573E-04   2.41042872414682E-17   1.64300000000000E+00   1.64300000000000E+00
      0.00000000000000E+00   0.00000000000000E+00   0.00000000000000E+00   0.00000000000000E+00   0.00000000000000E+00
      7.20774739081419E-17   7.00000000000000E-01   7.00000000000000E-01   0.00000000000000E+00   0.00000000000000E+00
      8.23308322374577E-04   5.43789875806986E-20   8.23308322374577E-04   1.54290650290914E-16
      3.93333333333333E-01
      0.00000000000000E+00   0.00000000000000E+00   0.00000000000000E+00   0.00000000000000E+00  -8.39085522379951E-04
     -5.47574120409749E-20  -8.39085522379951E-04   2.34342858526531E-17   1.72400000000000E+00   1.72400000000000E+00
      0.00000000000000E+00   0.00000000000000E+00   0.00000000000000E+00   0.00000000000000E+00   0.00000000000000E+00
      7.71443375391144E-17   7.00000000000000E-01   7.00000000000000E-01   0.00000000000000E+00   0.00000000000000E+00
      8.39085522379949E-04   5.47574120409752E-20   8.39085522379949E-04   1.53062011072405E-16
      4.08333333333333E-01
      0.00000000000000E+00   0.00000000000000E+00   0.00000000000000E+00   0.00000000000000E+00  -8.54845852925412E-04
     -5.51395201322615E-20  -8.54845852925412E-04   2.27749992070895E-17   1.80500000000000E+00   1.80500000000000E+00
      0.00000000000000E+00   0.00000000000000E+00   0.00000000000000E+00   0.00000000000000E+00   0.00000000000000E+00
      8.22176073213711E-17   7.00000000000000E-01   7.00000000000000E-01   0.00000000000000E+00   0.00000000000000E+00
      8.54845852925405E-04   5.51395201322610E-20   8.54845852925405E-04   1.51829628982653E-16
      4.23333333333333E-01
      0.00000000000000E+00   0.00000000000000E+00   0.00000000000000E+00   0.00000000000000E+00  -8.70581321431112E-04
     -5.55249319565375E-20  -8.70581321431112E-04   2.21259720447164E-17   1.88600000000000E+00   1.88600000000000E+00
      0.00000000000000E+00   0.00000000000000E+00   0.00000000000000E+00   0.00000000000000E+00   0.00000000000000E+00
      8.72969061242737E-17   7.00000000000000E-01   7.00000000000000E-01   0.00000000000000E+00   0.00000000000000E+00
      8.70581321431107E-04   5.55249319565370E-20   8.70581321431107E-04   1.50593421627078E-16
      4.38333333333333E-01
      0.00000000000000E+00   0.00000000000000E+00   0.00000000000000E+00   0.00000000000000E+00  -8.86284227309237E-04
     -5.59132668018813E-20  -8.86284227309237E-04   2.14867660642023E-17   1.96700000000000E+00   1.96700000000000E+00
      0.00000000000000E+00   0.00000000000000E+00   0.00000000000000E+00   0.00000000000000E+00   0.00000000000000E+00
      9.23818765674707E-17   7.00000000000000E-01   7.00000000000000E-01   0.00000000000000E+00   0.00000000000000E+00
      8.86284227309241E-04   5.59132668018821E-20   8.86284227309241E-04   1.49353397280600E-16
      4.53333333333333E-01
      0.00000000000000E+00   0.00000000000000E+00   0.00000000000000E+00   0.00000000000000E+00  -9.01946162413624E-04
     -5.63041398857450E-20  -9.01946162413624E-04   2.08570004651445E-17   2.04800000000000E+00   2.04800000000000E+00
      0.00000000000000E+00   0.00000000000000E+00   0.00000000000000E+00   0.00000000000000E+00   0.00000000000000E+00
      9.74722445412423E-17   7.00000000000000E-01   7.00000000000000E-01   0.00000000000000E+00   0.00000000000000E+00
      9.01946162413606E-04   5.63041398857450E-20   9.01946162413606E-04   1.48109100898872E-16
      4.68333333333333E-01
      0.00000000000000E+00   0.00000000000000E+00   0.00000000000000E+00   0.00000000000000E+00  -9.17558972981630E-04
     -5.66971695158532E-20  -9.17558972981631E-04   2.02363150413026E-17   2.12900000000000E+00   2.12900000000000E+00
      0.00000000000000E+00   0.00000000000000E+00   0.00000000000000E+00   0.00000000000000E+00   0.00000000000000E+00
      1.02567740289610E-16   7.00000000000000E-01   7.00000000000000E-01   0.00000000000000E+00   0.00000000000000E+00
      9.17558972981622E-04   5.66971695158527E-20   9.17558972981622E-04   1.46860253663635E-16
      4.83333333333333E-01
      0.00000000000000E+00   0.00000000000000E+00   0.00000000000000E+00   0.00000000000000E+00  -9.33116798376675E-04
     -5.70920186356583E-20  -9.33116798376675E-04   1.96242783514514E-17   2.21000000000000E+00   2.21000000000000E+00
      0.00000000000000E+00   0.00000000000000E+00   0.00000000000000E+00   0.00000000000000E+00   0.00000000000000E+00
      1.07668022330649E-16   7.00000000000000E-01   7.00000000000000E-01   0.00000000000000E+00   0.00000000000000E+00
      9.33116798376673E-04   5.70920186356583E-20   9.33116798376673E-04   1.45607575593833E-16
      4.98333333333333E-01
      0.00000000000000E+00   0.00000000000000E+00   0.00000000000000E+00   0.00000000000000E+00  -9.48611965530356E-04
     -5.74883181921029E-20  -9.48611965530356E-04   1.90205623594673E-17   2.29100000000000E+00   2.29100000000000E+00
      0.00000000000000E+00   0.00000000000000E+00   0.00000000000000E+00   0.00000000000000E+00   0.00000000000000E+00
      1.12772881014616E-16   7.00000000000000E-01   7.00000000000000E-01   0.00000000000000E+00   0.00000000000000E+00
      9.48611965530351E-04   5.74883181921032E-20   9.48611965530352E-04   1.44350866710578E-16
      5.13333333333333E-01
      0.00000000000000E+00   0.00000000000000E+00   0.00000000000000E+00   0.00000000000000E+00  -9.64037785756510E-04
     -5.78857255218913E-20  -9.64037785756510E-04   1.84248291558607E-17   2.37200000000000E+00   2.37200000000000E+00
      0.00000000000000E+00   0.00000000000000E+00   0.00000000000000E+00   0.00000000000000E+00   0.00000000000000E+00
      1.17882067071919E-16   7.00000000000000E-01   7.00000000000000E-01   0.00000000000000E+00   0.00000000000000E+00
      9.64037785756515E-04   5.78857255218910E-20   9.64037785756515E-04   1.43090528033690E-16
      5.28333333333333E-01
      0.00000000000000E+00   0.00000000000000E+00   0.00000000000000E+00   0.00000000000000E+00  -9.79387283051613E-04
     -5.82839072609599E-20  -9.79387283051613E-04   1.78367777727453E-17   2.45300000000000E+00   2.45300000000000E+00
      0.00000000000000E+00   0.00000000000000E+00   0.00000000000000E+00   0.00000000000000E+00   0.00000000000000E+00
      1.22995385342512E-16   7.00000000000000E-01   7.00000000000000E-01   0.00000000000000E+00   0.00000000000000E+00
      9.79387283051620E-04   5.82839072609598E-20   9.79387283051621E-04   1.41826764261613E-16
      5.43333333333333E-01
      0.00000000000000E+00   0.00000000000000E+00   0.00000000000000E+00   0.00000000000000E+00  -9.94653634509150E-04
     -5.86825306386050E-20  -9.94653634509150E-04   1.72561266375246E-17   2.53400000000000E+00   2.53400000000000E+00
      0.00000000000000E+00   0.00000000000000E+00   0.00000000000000E+00   0.00000000000000E+00   0.00000000000000E+00
      1.28112657540826E-16   7.00000000000000E-01   7.00000000000000E-01   0.00000000000000E+00   0.00000000000000E+00
      9.94653634509143E-04   5.86825306386056E-20   9.94653634509143E-04   1.40559869118465E-16
      5.58333333333333E-01
      0.00000000000000E+00   0.00000000000000E+00   0.00000000000000E+00   0.00000000000000E+00  -1.00983029932125E-03
     -5.90812775865291E-20  -1.00983029932125E-03   1.66826080405165E-17   2.61500000000000E+00   2.61500000000000E+00
      0.00000000000000E+00   0.00000000000000E+00   0.00000000000000E+00   0.00000000000000E+00   0.00000000000000E+00
      1.33233725472037E-16   7.00000000000000E-01   7.00000000000000E-01   0.00000000000000E+00   0.00000000000000E+00
      1.00983029932124E-03   5.90812775865292E-20   1.00983029932124E-03   1.39290238656033E-16
      5.73333333333333E-01
      0.00000000000000E+00   0.00000000000000E+00   0.00000000000000E+00   0.00000000000000E+00  -1.02491083022437E-03
     -5.94798404701453E-20  -1.02491083022437E-03   1.61159743181755E-17   2.69600000000000E+00   2.69600000000000E+00
      0.00000000000000E+00   0.00000000000000E+00   0.00000000000000E+00   0.00000000000000E+00   0.00000000000000E+00
      1.38358447867307E-16   7.00000000000000E-01   7.00000000000000E-01   0.00000000000000E+00   0.00000000000000E+00
      1.02491083022440E-03   5.94798404701450E-20   1.02491083022440E-03   1.38018453800749E-16
      5.88333333333333E-01
      0.00000000000000E+00   0.00000000000000E+00   0.00000000000000E+00   0.00000000000000E+00  -1.03988741837397E-03
     -5.98778880340147E-20  -1.03988741837397E-03   1.55560507791885E-17   2.77700000000000E+00   2.77700000000000E+00
      0.00000000000000E+00   0.00000000000000E+00   0.00000000000000E+00   0.00000000000000E+00   0.00000000000000E+00
      1.43486794821116E-16   7.00000000000000E-01   7.00000000000000E-01   0.00000000000000E+00   0.00000000000000E+00
      1.03988741837398E-03   5.98778880340146E-20   1.03988741837398E-03   1.36744304328887E-16
      6.03333333333333E-01
      0.00000000000000E+00   0.00000000000000E+00   0.00000000000000E+00   0.00000000000000E+00  -1.05475328598316E-03
     -6.02751253848789E-20  -1.05475328598316E-03   1.50026469903640E-17   2.85800000000000E+00   2.85800000000000E+00
      0.00000000000000E+00   0.00000000000000E+00   0.00000000000000E+00   0.00000000000000E+00   0.00000000000000E+00
      1.48618677973744E-16   7.00000000000000E-01   7.00000000000000E-01   0.00000000000000E+00   0.00000000000000E+00
      1.05475328598314E-03   6.02751253848786E-20   1.05475328598314E-03   1.35468330291196E-16
      6.18333333333333E-01
      0.00000000000000E+00   0.00000000000000E+00   0.00000000000000E+00   0.00000000000000E+00  -1.06950301556209E-03
     -6.06712886702918E-20  -1.06950301556209E-03   1.44555418349207E-17   2.93900000000000E+00   2.93900000000000E+00
      0.00000000000000E+00   0.00000000000000E+00   0.00000000000000E+00   0.00000000000000E+00   0.00000000000000E+00
      1.53753961322561E-16   7.00000000000000E-01   7.00000000000000E-01   0.00000000000000E+00   0.00000000000000E+00
      1.06950301556209E-03   6.06712886702918E-20   1.06950301556209E-03   1.34191948552763E-16
      6.33333333333333E-01
      0.00000000000000E+00   0.00000000000000E+00   0.00000000000000E+00   0.00000000000000E+00  -1.08412953088451E-03
     -6.10660885996364E-20  -1.08412953088451E-03   1.39145958412996E-17   3.02000000000000E+00   3.02000000000000E+00
      0.00000000000000E+00   0.00000000000000E+00   0.00000000000000E+00   0.00000000000000E+00   0.00000000000000E+00
      1.58892626883077E-16   7.00000000000000E-01   7.00000000000000E-01   0.00000000000000E+00   0.00000000000000E+00
      1.08412953088451E-03   6.10660885996365E-20   1.08412953088451E-03   1.32915916304351E-16
      6.48333333333333E-01
      0.00000000000000E+00   0.00000000000000E+00   0.00000000000000E+00   0.00000000000000E+00  -1.09862606336354E-03
     -6.14592346588838E-20  -1.09862606336354E-03   1.33796772324212E-17   3.10100000000000E+00   3.10100000000000E+00
      0.00000000000000E+00   0.00000000000000E+00   0.00000000000000E+00   0.00000000000000E+00   0.00000000000000E+00
      1.64034662246205E-16   7.00000000000000E-01   7.00000000000000E-01   0.00000000000000E+00   0.00000000000000E+00
      1.09862606336354E-03   6.14592346588846E-20   1.09862606336354E-03   1.31640796119290E-16
      6.66666666666666E-01
      0.00000000000000E+00   0.00000000000000E+00   0.00000000000000E+00   0.00000000000000E+00  -1.11615713620284E-03
     -6.19370865035570E-20  -1.11615713620284E-03   1.27339283253201E-17   3.20000000000000E+00   3.20000000000000E+00
      0.00000000000000E+00   0.00000000000000E+00   0.00000000000000E+00   0.00000000000000E+00   0.00000000000000E+00
      1.70323984682616E-16   7.00000000000000E-01   7.00000000000000E-01   0.00000000000000E+00   0.00000000000000E+00
      1.11615713620285E-03   6.19370865035571E-20   1.11615713620285E-03   1.30084641412177E-16
      6.81666666666666E-01
      0.00000000000000E+00   0.00000000000000E+00   0.00000000000000E+00   0.00000000000000E+00  -1.13034092507786E-03
     -6.23255818764882E-20  -1.13034092507786E-03   1.22120113886342E-17   3.28100000000000E+00   3.28100000000000E+00
      0.00000000000000E+00   0.00000000000000E+00   0.00000000000000E+00   0.00000000000000E+00   0.00000000000000E+00
      1.75473512778531E-16   7.00000000000000E-01   7.00000000000000E-01   0.00000000000000E+00   0.00000000000000E+00
      1.13034092507786E-03   6.23255818764883E-20   1.13034092507786E-03   1.28815179753726E-16
      6.96666666666666E-01
      0.00000000000000E+00   0.00000000000000E+00   0.00000000000000E+00   0.00000000000000E+00  -1.14437322664148E-03
     -6.27115489906515E-20  -1.14437322664148E-03   1.16958084178730E-17   3.36200000000000E+00   3.36200000000000E+00
      0.00000000000000E+00   0.00000000000000E+00   0.00000000000000E+00   0.00000000000000E+00   0.00000000000000E+00
      1.80626445782821E-16   7.00000000000000E-01   7.00000000000000E-01   0.00000000000000E+00   0.00000000000000E+00
      1.14437322664148E-03   6.27115489906516E-20   1.14437322664148E-03   1.27550291546525E-16
      7.11666666666666E-01
      0.00000000000000E+00   0.00000000000000E+00   0.00000000000000E+00   0.00000000000000E+00  -1.15824682123747E-03
     -6.30947101036211E-20  -1.15824682123747E-03   1.11852772774073E-17   3.44300000000000E+00   3.44300000000000E+00
      0.00000000000000E+00   0.00000000000000E+00   0.00000000000000E+00   0.00000000000000E+00   0.00000000000000E+00
      1.85782864986561E-16   7.00000000000000E-01   7.00000000000000E-01   0.00000000000000E+00   0.00000000000000E+00
      1.15824682123748E-03   6.30947101036216E-20   1.15824682123748E-03   1.26291123855116E-16
      7.26666666666666E-01
      0.00000000000000E+00   0.00000000000000E+00   0.00000000000000E+00   0.00000000000000E+00  -1.17195443884098E-03
     -6.34747722492251E-20  -1.17195443884098E-03   1.06803942011136E-17   3.52400000000000E+00   3.52400000000000E+00
      0.00000000000000E+00   0.00000000000000E+00   0.00000000000000E+00   0.00000000000000E+00   0.00000000000000E+00
      1.90942862626105E-16   7.00000000000000E-01   7.00000000000000E-01   0.00000000000000E+00   0.00000000000000E+00
      1.17195443884096E-03   6.34747722492256E-20   1.17195443884096E-03   1.25038960757423E-16
      7.41666666666666E-01
      0.00000000000000E+00   0.00000000000000E+00   0.00000000000000E+00   0.00000000000000E+00  -1.18548894603557E-03
     -6.38514578299117E-20  -1.18548894603557E-03   1.01811461133559E-17   3.60500000000000E+00   3.60500000000000E+00