DF-ISE text

Info {
  version   = 1.0
  type      = xyplot
  datasets  = [
    "time"
    "source OuterVoltage" "source InnerVoltage" "source QuasiFermiPotential" "source DisplacementCurrent" "source eCurrent"
    "source hCurrent" "source TotalCurrent" "source Charge" "gate OuterVoltage" "gate InnerVoltage"
    "gate QuasiFermiPotential" "gate DisplacementCurrent" "gate eCurrent" "gate hCurrent" "gate TotalCurrent"
    "gate Charge" "drain OuterVoltage" "drain InnerVoltage" "drain QuasiFermiPotential" "drain DisplacementCurrent"
    "drain eCurrent" "drain hCurrent" "drain TotalCurrent" "drain Charge" ]
  functions = [
    Time
    OuterVoltage InnerVoltage QuasiFermiPotential DisplacementCurrent eCurrent
    hCurrent TotalCurrent Charge OuterVoltage InnerVoltage
    QuasiFermiPotential DisplacementCurrent eCurrent hCurrent TotalCurrent
    Charge OuterVoltage InnerVoltage QuasiFermiPotential DisplacementCurrent
    eCurrent hCurrent TotalCurrent Charge ]
}

Data {
      0.00000000000000E+00
      0.00000000000000E+00   0.00000000000000E+00   0.00000000000000E+00   0.00000000000000E+00  -4.56205756176322E-20
     -6.83408895773771E-35  -4.56205756176323E-20   6.28005949472741E-17   0.00000000000000E+00   0.00000000000000E+00
      0.00000000000000E+00   0.00000000000000E+00   0.00000000000000E+00   0.00000000000000E+00   0.00000000000000E+00
     -1.39267613986168E-17   0.00000000000000E+00   0.00000000000000E+00   0.00000000000000E+00   0.00000000000000E+00
     -5.38003203656006E-18  -4.36262800639392E-34  -5.38003203656006E-18   6.27348730605599E-17
      5.00000000000000E-02
      0.00000000000000E+00   0.00000000000000E+00   0.00000000000000E+00   0.00000000000000E+00  -7.90702917736856E-05
     -2.32207082898435E-20  -7.90702917736856E-05   6.11748013459543E-17  -2.00000000000000E-02  -2.00000000000000E-02
      0.00000000000000E+00   0.00000000000000E+00   0.00000000000000E+00   0.00000000000000E+00   0.00000000000000E+00
     -1.60815319228736E-17   3.50000000000000E-02   3.50000000000000E-02   0.00000000000000E+00   0.00000000000000E+00
      7.90702917736837E-05   2.92376381603699E-20   7.90702917736837E-05   6.60625226230721E-17
      1.00000000000000E-01
      0.00000000000000E+00   0.00000000000000E+00   0.00000000000000E+00   0.00000000000000E+00  -1.07570143369473E-04
     -3.44296488684330E-20  -1.07570143369473E-04   5.99556203377098E-17  -4.00000000000000E-02  -4.00000000000000E-02
      0.00000000000000E+00   0.00000000000000E+00   0.00000000000000E+00   0.00000000000000E+00   0.00000000000000E+00
     -1.81271742881843E-17   7.00000000000000E-02   7.00000000000000E-02   0.00000000000000E+00   0.00000000000000E+00
      1.07570143426179E-04   3.51766265992260E-20   1.07570143426179E-04   7.05668238042297E-17
      1.50000000000000E-01
      0.00000000000000E+00   0.00000000000000E+00   0.00000000000000E+00   0.00000000000000E+00  -1.32135499206948E-04
     -3.76265375542081E-20  -1.32135499206948E-04   5.89352946276100E-17  -6.00000000000000E-02  -6.00000000000000E-02
      0.00000000000000E+00   0.00000000000000E+00   0.00000000000000E+00   0.00000000000000E+00   0.00000000000000E+00
     -2.01180803562122E-17   1.05000000000000E-01   1.05000000000000E-01   0.00000000000000E+00   0.00000000000000E+00
      1.32135499206937E-04   3.76265375542078E-20   1.32135499206937E-04   7.59671425435597E-17
      2.00000000000000E-01
      0.00000000000000E+00   0.00000000000000E+00   0.00000000000000E+00   0.00000000000000E+00  -1.55288161799484E-04
     -3.84814505161090E-20  -1.55288161799484E-04   5.79937137074462E-17  -8.00000000000000E-02  -8.00000000000000E-02
      0.00000000000000E+00   0.00000000000000E+00   0.00000000000000E+00   0.00000000000000E+00   0.00000000000000E+00
     -2.20836375536545E-17   1.40000000000000E-01   1.40000000000000E-01   0.00000000000000E+00   0.00000000000000E+00
      1.55288161799492E-04   3.84814505103400E-20   1.55288161799492E-04   8.19087150690739E-17
      2.50000000000000E-01
      0.00000000000000E+00   0.00000000000000E+00   0.00000000000000E+00   0.00000000000000E+00  -1.77509357421189E-04
     -3.91566895985117E-20  -1.77509357421189E-04   5.71012788200617E-17  -1.00000000000000E-01  -1.00000000000000E-01
      0.00000000000000E+00   0.00000000000000E+00   0.00000000000000E+00   0.00000000000000E+00   0.00000000000000E+00
     -2.40325624903814E-17   1.75000000000000E-01   1.75000000000000E-01   0.00000000000000E+00   0.00000000000000E+00
      1.77509357421175E-04   3.91566895985107E-20   1.77509357421175E-04   8.81816932142472E-17
      3.00000000000000E-01
      0.00000000000000E+00   0.00000000000000E+00   0.00000000000000E+00   0.00000000000000E+00  -1.99003341462471E-04
     -3.97762617477775E-20  -1.99003341462471E-04   5.62433985938937E-17  -1.20000000000000E-01  -1.20000000000000E-01
      0.00000000000000E+00   0.00000000000000E+00   0.00000000000000E+00   0.00000000000000E+00   0.00000000000000E+00
     -2.59680441490991E-17   2.10000000000000E-01   2.10000000000000E-01   0.00000000000000E+00   0.00000000000000E+00
      1.99003341462471E-04   3.97762617477771E-20   1.99003341462471E-04   9.46477868580569E-17
      3.50000000000000E-01
      0.00000000000000E+00   0.00000000000000E+00   0.00000000000000E+00   0.00000000000000E+00  -2.19914781341994E-04
     -4.03583194405585E-20  -2.19914781341994E-04   5.54102249987657E-17  -1.40000000000000E-01  -1.40000000000000E-01
      0.00000000000000E+00   0.00000000000000E+00   0.00000000000000E+00   0.00000000000000E+00   0.00000000000000E+00
     -2.78939348871369E-17   2.45000000000000E-01   2.45000000000000E-01   0.00000000000000E+00   0.00000000000000E+00
      2.19914781341996E-04   4.03583194405582E-20   2.19914781341996E-04   1.01206203098254E-16
      4.00000000000000E-01
      0.00000000000000E+00   0.00000000000000E+00   0.00000000000000E+00   0.00000000000000E+00  -2.40319934851867E-04
     -4.09143811318827E-20  -2.40319934851867E-04   5.45962219955861E-17  -1.60000000000000E-01  -1.60000000000000E-01
      0.00000000000000E+00   0.00000000000000E+00   0.00000000000000E+00   0.00000000000000E+00   0.00000000000000E+00
     -2.98126419995611E-17   2.80000000000000E-01   2.80000000000000E-01   0.00000000000000E+00   0.00000000000000E+00
      2.40319934851871E-04   4.09143811318820E-20   2.40319934851871E-04   1.07798038059430E-16
      4.50000000000000E-01
      0.00000000000000E+00   0.00000000000000E+00   0.00000000000000E+00   0.00000000000000E+00  -2.60221182221038E-04
     -4.14521358038337E-20  -2.60221182221038E-04   5.38003590563350E-17  -1.80000000000000E-01  -1.80000000000000E-01
      0.00000000000000E+00   0.00000000000000E+00   0.00000000000000E+00   0.00000000000000E+00   0.00000000000000E+00
     -3.17234553133843E-17   3.15000000000000E-01   3.15000000000000E-01   0.00000000000000E+00   0.00000000000000E+00
      2.60221182221046E-04   4.14521358038344E-20   2.60221182221046E-04   1.14408080396159E-16
      5.00000000000000E-01
      0.00000000000000E+00   0.00000000000000E+00   0.00000000000000E+00   0.00000000000000E+00  -2.79603867799712E-04
     -4.19768387552864E-20  -2.79603867799712E-04   5.30229812680306E-17  -2.00000000000000E-01  -2.00000000000000E-01
      0.00000000000000E+00   0.00000000000000E+00   0.00000000000000E+00   0.00000000000000E+00   0.00000000000000E+00
     -3.36248433904675E-17   3.50000000000000E-01   3.50000000000000E-01   0.00000000000000E+00   0.00000000000000E+00
      2.79603867799699E-04   4.19768387552863E-20   2.79603867799699E-04   1.21029324190337E-16
      5.50000000000000E-01
      0.00000000000000E+00   0.00000000000000E+00   0.00000000000000E+00   0.00000000000000E+00  -2.98465183561738E-04
     -4.24919945322585E-20  -2.98465183561738E-04   5.22638782507193E-17  -2.20000000000000E-01  -2.20000000000000E-01
      0.00000000000000E+00   0.00000000000000E+00   0.00000000000000E+00   0.00000000000000E+00   0.00000000000000E+00
     -3.55160569382585E-17   3.85000000000000E-01   3.85000000000000E-01   0.00000000000000E+00   0.00000000000000E+00
      2.98465183561722E-04   4.24919945322581E-20   2.98465183561722E-04   1.27646669534257E-16
      6.00000000000000E-01
      0.00000000000000E+00   0.00000000000000E+00   0.00000000000000E+00   0.00000000000000E+00  -3.16812980130949E-04
     -4.29997841593208E-20  -3.16812980130949E-04   5.15223762481534E-17  -2.40000000000000E-01  -2.40000000000000E-01
      0.00000000000000E+00   0.00000000000000E+00   0.00000000000000E+00   0.00000000000000E+00   0.00000000000000E+00
     -3.73968758730969E-17   4.20000000000000E-01   4.20000000000000E-01   0.00000000000000E+00   0.00000000000000E+00
      3.16812980130958E-04   4.29997841593208E-20   3.16812980130959E-04   1.34241763519325E-16
      6.50000000000000E-01
      0.00000000000000E+00   0.00000000000000E+00   0.00000000000000E+00   0.00000000000000E+00  -3.34670535536937E-04
     -4.35017096894421E-20  -3.34670535536937E-04   5.07984470555143E-17  -2.60000000000000E-01  -2.60000000000000E-01
      0.00000000000000E+00   0.00000000000000E+00   0.00000000000000E+00   0.00000000000000E+00   0.00000000000000E+00
     -3.92671288648350E-17   4.55000000000000E-01   4.55000000000000E-01   0.00000000000000E+00   0.00000000000000E+00
      3.34670535536940E-04   4.35017096894420E-20   3.34670535536940E-04   1.40797745056516E-16
      7.00000000000000E-01
      0.00000000000000E+00   0.00000000000000E+00   0.00000000000000E+00   0.00000000000000E+00  -3.52048506789880E-04
     -4.39984918239672E-20  -3.52048506789880E-04   5.00914965905950E-17  -2.80000000000000E-01  -2.80000000000000E-01
      0.00000000000000E+00   0.00000000000000E+00   0.00000000000000E+00   0.00000000000000E+00   0.00000000000000E+00
     -4.11267057110451E-17   4.90000000000000E-01   4.90000000000000E-01   0.00000000000000E+00   0.00000000000000E+00
      3.52048506789881E-04   4.39984918239673E-20   3.52048506789881E-04   1.47299978319971E-16
      7.50000000000000E-01
      0.00000000000000E+00   0.00000000000000E+00   0.00000000000000E+00   0.00000000000000E+00  -3.68968036235560E-04
     -4.44907697188845E-20  -3.68968036235561E-04   4.94013867941042E-17  -3.00000000000000E-01  -3.00000000000000E-01
      0.00000000000000E+00   0.00000000000000E+00   0.00000000000000E+00   0.00000000000000E+00   0.00000000000000E+00
     -4.29754573604309E-17   5.25000000000000E-01   5.25000000000000E-01   0.00000000000000E+00   0.00000000000000E+00
      3.68968036235566E-04   4.44907697188849E-20   3.68968036235566E-04   1.53739911129435E-16
      8.00000000000000E-01
      0.00000000000000E+00   0.00000000000000E+00   0.00000000000000E+00   0.00000000000000E+00  -3.85449531365669E-04
     -4.49789924482933E-20  -3.85449531365669E-04   4.87275518266286E-17  -3.20000000000000E-01  -3.20000000000000E-01
      0.00000000000000E+00   0.00000000000000E+00   0.00000000000000E+00   0.00000000000000E+00   0.00000000000000E+00
     -4.48134120542976E-17   5.60000000000000E-01   5.60000000000000E-01   0.00000000000000E+00   0.00000000000000E+00
      3.85449531365669E-04   4.49789924482931E-20   3.85449531365669E-04   1.60116241698456E-16
      8.50000000000000E-01
      0.00000000000000E+00   0.00000000000000E+00   0.00000000000000E+00   0.00000000000000E+00  -4.01516324037804E-04
     -4.54636090612262E-20  -4.01516324037804E-04   4.80695530017305E-17  -3.40000000000000E-01  -3.40000000000000E-01
      0.00000000000000E+00   0.00000000000000E+00   0.00000000000000E+00   0.00000000000000E+00   0.00000000000000E+00
     -4.66407785072589E-17   5.95000000000000E-01   5.95000000000000E-01   0.00000000000000E+00   0.00000000000000E+00
      4.01516324037797E-04   4.54636090612265E-20   4.01516324037797E-04   1.66434055742531E-16
      9.00000000000000E-01
      0.00000000000000E+00   0.00000000000000E+00   0.00000000000000E+00   0.00000000000000E+00  -4.17196243883634E-04
     -4.59452147033557E-20  -4.17196243883634E-04   4.74270571087554E-17  -3.60000000000000E-01  -3.60000000000000E-01
      0.00000000000000E+00   0.00000000000000E+00   0.00000000000000E+00   0.00000000000000E+00   0.00000000000000E+00
     -4.84578544366283E-17   6.30000000000000E-01   6.30000000000000E-01   0.00000000000000E+00   0.00000000000000E+00
      4.17196243883620E-04   4.59452147033560E-20   4.17196243883621E-04   1.72700325508749E-16
      9.50000000000000E-01
      0.00000000000000E+00   0.00000000000000E+00   0.00000000000000E+00   0.00000000000000E+00  -4.32506799883878E-04
     -4.64242840125933E-20  -4.32506799883879E-04   4.67990113545846E-17  -3.80000000000000E-01  -3.80000000000000E-01
      0.00000000000000E+00   0.00000000000000E+00   0.00000000000000E+00   0.00000000000000E+00   0.00000000000000E+00
     -5.02649860099603E-17   6.65000000000000E-01   6.65000000000000E-01   0.00000000000000E+00   0.00000000000000E+00
      4.32506799883868E-04   4.64242840125939E-20   4.32506799883868E-04   1.78919746797731E-16
      1.00000000000000E+00
      0.00000000000000E+00   0.00000000000000E+00   0.00000000000000E+00   0.00000000000000E+00  -4.47468817129502E-04
     -4.69013999587795E-20  -4.47468817129502E-04   4.61855049127777E-17  -4.00000000000000E-01  -4.00000000000000E-01
      0.00000000000000E+00   0.00000000000000E+00   0.00000000000000E+00   0.00000000000000E+00   0.00000000000000E+00
     -5.20623589017838E-17   7.00000000000000E-01   7.00000000000000E-01   0.00000000000000E+00   0.00000000000000E+00
      4.47468817129516E-04   4.69013999587794E-20   4.47468817129516E-04   1.85094732720516E-16
}
